% Model:              gan_lamb_eigen.mph
% Version:            COMSOL 6.2.0.339
% Date:               Jun 20 2024, 11:04
% Table:              Eigenfrequencies (Study 1) 1 - 
% pitch (m)                                       Eigenfrequency (Hz)                               Angular frequency (rad/s)                         Damping ratio (1)                                 Quality factor (1)
1.5E-7                                            14.981976826943185-6008.136738451194i             94.13453667155446-37750.23647856242i              -0.9999968909578878                               -0.5000015545258892
1.5E-7                                            15.531630134206347-6123.642991981183i             97.58811025579303-38475.98367362941i              -0.9999967835095832                               -0.5000016082503813
1.5E-7                                            2.2012302774557023E9+5503041.299836651i           1.3830737737028513E10+3.45766282399361E7i         0.0024999765628741224                             200.00187498764794
1.5E-7                                            3.9285281039965215E9+9821258.877463557i           2.468367006187302E10+6.170878947688609E7i         0.0024999765628673635                             200.00187498818866
1.5E-7                                            4.392553929650882E9+1.098131619132265E7i          2.7599230311776375E10+6.899764454681177E7i        0.0024999765628767466                             200.001874987438
1.5E-7                                            6.542820063672958E9+1.635694792879717E7i          4.110975089158974E10+1.0277373489651994E8i        0.0024999765628631876                             200.00187498852273
1.5E-7                                            7.8475083380314455E9+1.9618648229443327E7i        4.930734908748847E10+1.2326760230196312E8i        0.0024999765628975                                200.0018749857777
1.5E-7                                            8.257635414883436E9+2.06439595131889E7i           5.1884253510841415E10+1.2970982309527873E8i       0.0024999765628688285                             200.00187498807145
1.5E-7                                            8.408164177392038E9+2.1020279067637227E7i         5.2830053619743385E10+1.3207430859059285E8i       0.0024999765628879503                             200.00187498654168
1.5E-7                                            9.49351237724195E9+2.373363260848378E7i           5.964949748221416E10+1.491228116916236E8i         0.0024999765628421367                             200.00187499020686
1.5E-7                                            1.1281883871898527E10+2.820453340271357E7i        7.088616698121916E10+1.7721430987178576E8i        0.0024999765628960753                             200.00187498589167
1.5E-7                                            1.1738992306582005E10+2.934729734753483E7i        7.375826398181026E10+1.843945074994613E8i         0.0024999765629245708                             200.001874983612
1.5E-7                                            1.2689493083138302E10+3.17235344370097E7i         7.973043649553157E10+1.9932484546642497E8i        0.002499976562879592                              200.00187498721036
1.5E-7                                            1.341836010071489E10+3.3545690592440642E7i        8.431004303125659E10+2.1077379024961552E8i        0.0024999765628716487                             200.00187498784584
1.5E-7                                            1.3729143916132553E10+3.432264527512165E7i        8.626275533399806E10+2.1565554049618122E8i        0.0024999765628771382                             200.00187498740667
1.5E-7                                            1.3729173795596107E10+3.432271997330524E7i        8.626294307220445E10+2.156560098387108E8i         0.0024999765628765237                             200.00187498745584
1.5E-7                                            1.4636316350328085E10+3.6590562185992315E7i       9.196268784361377E10+2.2990528270846787E8i        0.002499976562861772                              200.001874988636
1.5E-7                                            1.5168741667378487E10+3.7921617159461975E7i       9.530801477287529E10+2.3826854776082075E8i        0.0024999765628547907                             200.0018749891945
1.5E-7                                            1.5274136529796453E10+3.818510266910004E7i        9.597023022387207E10+2.3992407604363337E8i        0.002499976562879                                 200.00187498725774
1.5E-7                                            1.5547703914594568E10+3.886901685708815E7i        9.768910479655913E10+2.4422123562097192E8i        0.002499976562906632                              200.0018749850471
1.5E-7                                            1.5598117264474804E10+3.8995049443680026E7i       9.800586121581233E10+2.4501312171727183E8i        0.002499976562880258                              200.0018749871571
1.5E-7                                            1.5925453717911438E10+3.9813385462427005E7i       1.0006257681054967E11+2.5015487856659868E8i       0.002499976562862861                              200.00187498854885
1.5E-7                                            1.6119211079678144E10+4.0297775839692615E7i       1.0127999021916011E11+2.5319839306797314E8i       0.002499976562879784                              200.00187498719498
1.5E-7                                            1.697880629944553E10+4.244675045791002E7i         1.0668098627412436E11+2.6670079881465864E8i       0.0024999765628683102                             200.00187498811292
1.5E-7                                            1.724620861420519E10+4.311525206652186E7i         1.0836112456932805E11+2.7090111829971445E8i       0.0024999765628581252                             200.00187498892774
1.5E-7                                            1.7778817756397457E10+4.444676660034441E7i        1.1170760650602003E11+2.792672708549244E8i        0.002499976562873115                              200.0018749877285
1.5E-7                                            1.8209771458762028E10+4.5524144122691646E7i       1.1441536847679175E11+2.860366334736221E8i        0.002499976562873418                              200.0018749877043
1.5E-7                                            1.857329117108043E10+4.64329377234655E7i          1.1669943019210088E11+2.9174675207326317E8i       0.0024999765628682586                             200.00187498811707
1.5E-7                                            1.9011807943105564E10+4.75292228013994E7i         1.1945471233104103E11+2.986349143674177E8i        0.0024999765628479784                             200.0018749897395
1.5E-7                                            1.9528126546454105E10+4.882001124287514E7i        1.2269883779342407E11+3.0674517733757526E8i       0.00249997656287345                               200.0018749877017
1.5E-7                                            1.9931096072008526E10+4.982742876106492E7i        1.2523076999562874E11+3.1307496828606063E8i       0.0024999765629048517                             200.00187498518954
1.5E-7                                            2.0017413762528133E10+5.0043221638293184E7i       1.257731200404512E11+3.144308349216553E8i         0.002499976562886069                              200.0018749866922
1.5E-7                                            2.0884919862326492E10+5.221197333276671E7i        1.3122382162059293E11+3.280575037032922E8i        0.002499976562866168                              200.0018749882843
1.5E-7                                            2.1101728523909588E10+5.2753991599621184E7i       1.325860706175211E11+3.3146310491381514E8i        0.0024999765628895016                             200.0018749864176
1.5E-7                                            2.1524370092178608E10+5.381058891537649E7i        1.3524160590947235E11+3.381019016437743E8i        0.002499976562832359                              200.00187499098908
1.5E-7                                            2.1797024410336704E10+5.449222045072314E7i        1.3695474351526236E11+3.423847188915746E8i        0.0024999765628385263                             200.00187499049568
1.5E-7                                            2.1951554983403408E10+5.487854446896831E7i        1.3792568774146512E11+3.448120642868232E8i        0.002499976562842836                              200.00187499015092
1.5E-7                                            2.2294315345435356E10+5.573544001930007E7i        1.400793146120678E11+3.5019609781845534E8i        0.002499976562879966                              200.00187498718046
1.5E-7                                            2.3320550857808945E10+5.830101276551788E7i        1.4652734250511945E11+3.6631606680199146E8i       0.0024999765628804667                             200.00187498714038
1.5E-7                                            2.344871222822559E10+5.8621414189102314E7i        1.473326041446693E11+3.683292083190566E8i         0.0024999765628821273                             200.0018749870075
1.5E-7                                            2.3765833410098408E10+5.941421218832737E7i        1.4932513529520804E11+3.733105050593488E8i        0.00249997656286102                               200.00187498869616
1.5E-7                                            2.441035088849521E10+6.102549581492602E7i         1.5337475804569125E11+3.834344986676925E8i        0.002499976562905164                              200.00187498516456
1.5E-7                                            2.4885729923157566E10+6.221393597346071E7i        1.56361652611623E11+3.9090168841025984E8i         0.0024999765628879113                             200.0018749865448
1.5E-7                                            2.4922391411990574E10+6.2305589122441486E7i       1.5659200353959787E11+3.914775621292926E8i        0.002499976562876938                              200.0018749874227
1.5E-7                                            2.5215127728368168E10+6.303742533972867E7i        1.5843132006153946E11+3.960758246970133E8i        0.002499976562888494                              200.0018749864982
1.5E-7                                            2.625427096499961E10+6.5635267194559164E7i        1.6496044957799716E11+4.1239854646966046E8i       0.0024999765628752214                             200.00187498756003
1.5E-7                                            2.6383350864899242E10+6.5957964927329056E7i       1.6577148250849875E11+4.144261161228604E8i        0.0024999765628702726                             200.00187498795592
1.5E-7                                            2.662055455719624E10+6.655097042524783E7i         1.67261877262748E11+4.1815207955446035E8i         0.0024999765618725412                             200.00187506777593
1.5E-7                                            2.6749951284436203E10+6.687445968240242E7i        1.6807490087813925E11+4.201846225020445E8i        0.002499976541722541                              200.00187667980617
1.5E-7                                            2.693182626117288E10+6.732914457158513E7i         1.6921765505971475E11+4.230414919171539E8i        0.002499976552599896                              200.00187580960144
1.75E-7                                           15.049504653634878-5976.186542678393i             94.55882652004948-37549.48747792125i              -0.9999968292349719                               -0.5000015853875409
1.75E-7                                           15.409481136148397-6207.024854727145i             96.8206254659086-38999.8873685201i                -0.9999969183943692                               -0.5000015408075635
1.75E-7                                           2.201314637136221E9+5503252.197734307i            1.3831267784533667E10+3.457795335050796E7i        0.0024999765628806923                             200.00187498712233
1.75E-7                                           3.9284960158359756E9+9821178.657582436i           2.4683468446014145E10+6.1708285440507695E7i       0.002499976562872167                              200.00187498780437
1.75E-7                                           4.3935619869211445E9+1.0983836318831531E7i        2.7605564122405685E10+6.90134789749478E7i         0.002499976562895848                              200.00187498590986
1.75E-7                                           6.550780939995149E9+1.6376849995440451E7i         4.11597705527296E10+1.0289878326923552E8i         0.0024999765628975442                             200.00187498577415
1.75E-7                                           7.847149312047602E9+1.961775067009501E7i          4.930509326070189E10+1.2326196277025346E8i        0.0024999765628977025                             200.0018749857615
1.75E-7                                           8.28949151573665E9+2.072359926767792E7i           5.208441129566636E10+1.3021021443055156E8i        0.0024999765628810904                             200.0018749870905
1.75E-7                                           8.497604453759387E9+2.124387836077897E7i          5.339202345008479E10+1.3347922438395678E8i        0.0024999765628537485                             200.00187498927787
1.75E-7                                           9.66429868769221E9+2.4160595716914166E7i          6.0722579518702644E10+1.5180550002122113E8i       0.00249997656292633                               200.00187498347125
1.75E-7                                           1.1097885501191755E10+2.774454035051305E7i        6.97300711218494E10+1.7432408828479475E8i         0.002499976562862831                              200.00187498855126
1.75E-7                                           1.1321461921677448E10+2.830347790872515E7i        7.11348432020769E10+1.7783599653818387E8i         0.0024999765628927967                             200.00187498615398
1.75E-7                                           1.1736734275677032E10+2.934165230539079E7i        7.374407635520497E10+1.8435903865360343E8i        0.0024999765629107                                200.0018749847217
1.75E-7                                           1.1767629213745361E10+2.9418889167468995E7i       7.393819497614212E10+1.8484433217058587E8i        0.0024999765628795773                             200.00187498721152
1.75E-7                                           1.1767732161160353E10+2.9419146534458347E7i       7.393884181382741E10+1.8484594925507194E8i        0.0024999765628847107                             200.00187498680086
1.75E-7                                           1.2788972122303726E10+3.197223048048944E7i        8.03554817327881E10+2.0088744879277056E8i         0.0024999765628722906                             200.00187498779448
1.75E-7                                           1.3135111910882757E10+3.2837574543574307E7i       8.253034216661812E10+2.063245658956005E8i         0.0024999765628727472                             200.00187498775793
1.75E-7                                           1.3338204905526346E10+3.3345303857025113E7i       8.380641308655382E10+2.09514723257899E8i          0.0024999765628825957                             200.00187498697005
1.75E-7                                           1.3433754697583628E10+3.358417684419962E7i        8.44067701361122E10+2.1101560650119594E8i         0.0024999765628809386                             200.00187498710264
1.75E-7                                           1.4057095222706512E10+3.514251841755922E7i        8.832333416493391E10+2.208069553784961E8i         0.0024999765628898147                             200.00187498639252
1.75E-7                                           1.429740794369561E10+3.57432964650373E7i          8.983326352258096E10+2.2458175517928642E8i        0.002499976562878759                              200.001874987277
1.75E-7                                           1.5272258506854792E10+3.818040764097475E7i        9.595843025771848E10+2.3989457631189978E8i        0.0024999765628714783                             200.00187498785945
1.75E-7                                           1.5532438190463959E10+3.88308527833536E7i         9.759318742299823E10+2.4398144367362085E8i        0.002499976562782277                              200.0018749949957
1.75E-7                                           1.5542252136219242E10+3.885538749579869E7i        9.765485026277328E10+2.4413559981837177E8i        0.002499976562872277                              200.0018749877956
1.75E-7                                           1.5606389466508219E10+3.901572981940279E7i        9.80578369940867E10+2.4514306035016006E8i         0.002499976562873258                              200.0018749877171
1.75E-7                                           1.6642552014999363E10+4.1606120000610426E7i       1.0456823829461601E11+2.6141896187658614E8i       0.0024999765628625965                             200.00187498857002
1.75E-7                                           1.6962662096567928E10+4.240639020310198E7i        1.0657954925580768E11+2.664472078546547E8i        0.002499976562876315                              200.00187498747255
1.75E-7                                           1.7781027954337055E10+4.4452292061087385E7i       1.1172149358924008E11+2.7930198834868E8i          0.00249997656289718                               200.0018749858033
1.75E-7                                           1.8072222252503395E10+4.51802732564145E7i         1.135511213250133E11+2.838760290990624E8i         0.0024999765628838906                             200.00187498686645
1.75E-7                                           1.842349372894702E10+4.605844645876552E7i         1.1575822510463518E11+2.8939375406123316E8i       0.002499976562872397                              200.001874987786
1.75E-7                                           1.886909676989164E10+4.717244709787764E7i         1.1855803158433295E11+2.963932265090911E8i        0.002499976562830728                              200.00187499111956
1.75E-7                                           1.950963717166275E10+4.8773788095019035E7i        1.2258266562539609E11+3.064547487341142E8i        0.002499976562885205                              200.0018749867613
1.75E-7                                           1.9579472891817722E10+4.894837630443944E7i        1.2302145639619012E11+3.075517188063513E8i        0.0024999765628955215                             200.00187498593598
1.75E-7                                           1.9915234131826794E10+4.978777415732707E7i        1.2513110648613551E11+3.1282581106249297E8i       0.0024999765628484724                             200.00187498969999
1.75E-7                                           2.0581947498845394E10+5.145454715832068E7i        1.2932019011788701E11+3.232984546927396E8i        0.002499976562884096                              200.00187498685003
1.75E-7                                           2.0944944357493572E10+5.2362033633512914E7i       1.3160096664669759E11+3.2900036038013166E8i       0.0024999765628996007                             200.00187498560962
1.75E-7                                           2.1100158884581238E10+5.275006752786769E7i        1.3257620828275565E11+3.3143844924382925E8i       0.0024999765629862814                             200.00187497867506
1.75E-7                                           2.1808795035045845E10+5.452164682934548E7i        1.3702870053149117E11+3.42569610281378E8i         0.002499976562873542                              200.00187498769435
1.75E-7                                           2.192505508220429E10+5.4812295130875565E7i        1.377591839516091E11+3.443958074191085E8i         0.0024999765628815275                             200.00187498705552
1.75E-7                                           2.228153282915893E10+5.5703483928103425E7i        1.39998999693611E11+3.4999531177577364E8i         0.002499976562869648                              200.00187498800588
1.75E-7                                           2.2892152575128685E10+5.723002375246429E7i        1.4383563670976187E11+3.5958684437102234E8i       0.002499976562880836                              200.00187498711085
1.75E-7                                           2.292610742623956E10+5.7314910349825636E7i        1.440489813313692E11+3.6012020259233963E8i        0.002499976562886157                              200.00187498668515
1.75E-7                                           2.3037888180692577E10+5.7594360489629865E7i       1.4475132052537384E11+3.6187603960484684E8i       0.0024999765628958485                             200.00187498590984
1.75E-7                                           2.330592359924086E10+5.8264444847559914E7i        1.4643543672900015E11+3.660863037971638E8i        0.002499976562876786                              200.00187498743483
1.75E-7                                           2.336031124300363E10+5.840041310710625E7i         1.4677716437318253E11+3.669406175677881E8i        0.0024999765628740383                             200.00187498765465
1.75E-7                                           2.354186437119325E10+5.885429309092419E7i         1.47917896320696E11+3.697924296133359E8i          0.002499976562877303                              200.00187498739348
1.75E-7                                           2.3541996744137432E10+5.885462402144381E7i        1.4791872804443396E11+3.6979450891111445E8i       0.0024999765628869646                             200.00187498662052
1.75E-7                                           2.3761437146765366E10+5.940322159906771E7i        1.4929751275802737E11+3.732414491503953E8i        0.002499976562877101                              200.00187498740965
1.75E-7                                           2.391026468453309E10+5.977528811852238E7i         1.5023262375663324E11+3.7557921203872633E8i       0.002499976562895368                              200.00187498594823
1.75E-7                                           2.395063909689859E10+5.9876223518074684E7i        1.5048630367119418E11+3.7621340785816765E8i       0.0024999765628736645                             200.0018749876846
2.0E-7                                            14.792206751568123-5888.33534793763i              92.94217612221551-36997.50214190791i              -0.9999968446407376                               -0.5000015776846094
2.0E-7                                            15.485684888488132-6163.604675709313i             97.29942776296159-38727.070337680154i             -0.9999968438383982                               -0.5000015780857816
2.0E-7                                            2.201368746006024E9+5503387.469072512i            1.38316077605894E10+3.457880328539266E7i          0.0024999765628848434                             200.00187498679023
2.0E-7                                            3.928461510147641E9+9821092.393901292i            2.4683251640380188E10+6.170774342981379E7i        0.0024999765628723066                             200.0018749877932
2.0E-7                                            4.394188484304091E9+1.098540255233772E7i          2.7609500521557205E10+6.902331991030148E7i        0.0024999765628589154                             200.00187498886453
2.0E-7                                            6.555338954009362E9+1.6388244958828254E7i         4.118840939941362E10+1.029703799357696E8i         0.0024999765628319886                             200.0018749910187
2.0E-7                                            7.846742795700613E9+1.9616734385419097E7i         4.930253904316336E10+1.2325557726530984E8i        0.00249997656287729                               200.00187498739453
2.0E-7                                            8.119701340482445E9+2.029912648252563E7i          5.101758816120569E10+1.2754317326358509E8i        0.0024999765628866757                             200.00187498664363
2.0E-7                                            8.543201150032978E9+2.135786938941166E7i          5.3678515942166954E10+1.34195451140212E8i         0.0024999765628993184                             200.00187498563224
2.0E-7                                            9.785192499377346E9+2.4462828356604133E7i         6.1482177740011635E10+1.5370448370227122E8i       0.002499976562866396                              200.00187498826608
2.0E-7                                            9.83264208854289E9+2.458145158809667E7i           6.178031230148829E10+1.544498154474753E8i         0.002499976562863326                              200.00187498851167
2.0E-7                                            1.0296670100489885E10+2.5741514367778353E7i       6.46958862882734E10+1.6173870486017716E8i         0.002499976562879666                              200.00187498720445
2.0E-7                                            1.029715704972879E10+2.574273173320314E7i         6.469894588057663E10+1.6174635379272765E8i        0.0024999765628734515                             200.0018749877016
2.0E-7                                            1.1352088426980427E10+2.8380043693630878E7i       7.132727521020683E10+1.783170735529362E8i         0.0024999765629087406                             200.0018749848784
2.0E-7                                            1.1420059282014523E10+2.854996976893177E7i        7.17543486878735E10+1.7938475057257345E8i         0.0024999765628864056                             200.00187498666529
2.0E-7                                            1.1644572677956633E10+2.911124975083375E7i        7.316500795852196E10+1.82911376708074E8i          0.0024999765628883697                             200.00187498650814
2.0E-7                                            1.1733879347902927E10+2.933451503011341E7i        7.372613831496165E10+1.8431419383044732E8i        0.0024999765628723743                             200.00187498778777
2.0E-7                                            1.2027268508937706E10+3.0067983348660607E7i       7.556955678086113E10+1.8892271119282478E8i        0.0024999765628815496                             200.00187498705372
2.0E-7                                            1.271718884342571E10+3.179277340480579E7i         7.990445408964058E10+1.9975988673156565E8i        0.002499976562865311                              200.00187498835288
2.0E-7                                            1.3013831211084501E10+3.2534374689203363E7i       8.176831305560126E10+2.0441950502547798E8i        0.002499976562883256                              200.00187498691722
2.0E-7                                            1.3442970300818045E10+3.360721570847402E7i        8.446467347895148E10+2.1116036395469895E8i        0.002499976562894353                              200.00187498602943
2.0E-7                                            1.4057724876790592E10+3.5144092542651795E7i       8.83272903982236E10+2.2081684589814943E8i         0.002499976562869939                              200.0018749879826
2.0E-7                                            1.4321657277771282E10+3.580391942146229E7i        8.998562658215411E10+2.249626604483737E8i         0.0024999765628876203                             200.00187498656808
2.0E-7                                            1.5507590951059875E10+3.876873507429708E7i        9.743706761345052E10+2.435911465967613E8i         0.002499976562860821                              200.00187498871207
2.0E-7                                            1.5513967232270948E10+3.878467567859563E7i        9.747713096987038E10+2.4369130436747754E8i        0.0024999765629187764                             200.00187498407553
2.0E-7                                            1.5607696382626202E10+3.901899708973155E7i        9.806604859023692E10+2.451635892150843E8i         0.0024999765629023533                             200.0018749853894
2.0E-7                                            1.577868252498602E10+3.944645977349853E7i         9.914038620764345E10+2.4784941646909654E8i        0.0024999765628699318                             200.0018749879832
2.0E-7                                            1.6984286355099735E10+4.246045051166645E7i        1.0671541847929338E11+2.6678687879112858E8i       0.0024999765628827804                             200.00187498695527
2.0E-7                                            1.7186534324859116E10+4.296606727599272E7i        1.0798617995129242E11+2.699637626158071E8i        0.002499976562883477                              200.00187498689957
2.0E-7                                            1.776898799501768E10+4.442219235005641E7i         1.1164584429374554E11+2.7911286628657985E8i       0.0024999765628491003                             200.00187498964974
2.0E-7                                            1.833610478540447E10+4.5839975465705976E7i        1.1520914417855865E11+2.880210603275965E8i        0.002499976562892092                              200.00187498621034
2.0E-7                                            1.8406293240292778E10+4.6015445506256334E7i       1.1565015124704652E11+2.8912357110823274E8i       0.0024999765628926094                             200.00187498616896
2.0E-7                                            1.8513116499326523E10+4.628250198297379E7i        1.1632134157867238E11+2.90801536438931E8i         0.0024999765627966857                             200.001874993843
2.0E-7                                            1.944378791371829E10+4.860916597892015E7i         1.2216892253539078E11+3.054203974730049E8i        0.0024999765628790807                             200.00187498725126